LAMMPS data file. CGCMM style. atom_style full generated by VMD/TopoTools v1.7 on Wed Aug 20 12:08:43 IST 2025
 78 atoms
 52 bonds
 26 angles
 0 dihedrals
 0 impropers
 2 atom types
 1 bond types
 1 angle types
 0 dihedral types
 0 improper types
 -2.036205 47.963795  xlo xhi
 -0.031688 49.968312  ylo yhi
 6.995725 456.995725  zlo zhi

# Pair Coeffs
#
# 1  C
# 2  O

# Bond Coeffs
#
# 1  C-O

# Angle Coeffs
#
# 1  O-C-O

 Masses

 1 12.010700 # C
 2 15.999400 # O

 Atoms # full

1 1 1 0.000000 25.402451 40.508602 184.072617 # C 
2 1 2 0.000000 25.064697 41.619389 184.070724 # O 
3 1 2 0.000000 25.740194 39.397816 184.074524 # O 
4 2 1 0.000000 38.398857 37.876305 177.975281 # C 
5 2 2 0.000000 37.542610 38.410393 178.549316 # O 
6 2 2 0.000000 39.255112 37.342209 177.401260 # O 
7 3 1 0.000000 9.522129 44.465919 236.855026 # C 
8 3 2 0.000000 9.692877 44.745045 235.741089 # O 
9 3 2 0.000000 9.351382 44.186779 237.968964 # O 
10 4 1 0.000000 12.705906 1.840887 360.599091 # C 
11 4 2 0.000000 13.547777 1.729457 359.807404 # O 
12 4 2 0.000000 11.864026 1.952325 361.390747 # O 
13 5 1 0.000000 8.451240 27.757896 189.118759 # C 
14 5 2 0.000000 7.849370 28.688503 189.464661 # O 
15 5 2 0.000000 9.053107 26.827282 188.772873 # O 
16 6 1 0.000000 4.979843 22.350254 449.623474 # C 
17 6 2 0.000000 5.297866 21.321350 449.189728 # O 
18 6 2 0.000000 4.661807 23.379150 450.057220 # O 
19 7 1 0.000000 6.890033 10.692906 346.796387 # C 
20 7 2 0.000000 5.769048 10.701361 346.494293 # O 
21 7 2 0.000000 8.011018 10.684467 347.098450 # O 
22 8 1 0.000000 0.702873 47.563248 14.596052 # C 
23 8 2 0.000000 0.423970 48.475464 15.257865 # O 
24 8 2 0.000000 0.981792 46.651035 13.934240 # O 
25 9 1 0.000000 38.755119 29.540569 80.437988 # C 
26 9 2 0.000000 38.976448 30.678730 80.497353 # O 
27 9 2 0.000000 38.533806 28.402405 80.378616 # O 
28 10 1 0.000000 24.209467 42.737518 413.587555 # C 
29 10 2 0.000000 23.320253 42.451916 414.277222 # O 
30 10 2 0.000000 25.098677 43.023106 412.897858 # O 
31 11 1 0.000000 20.300594 15.058153 420.052277 # C 
32 11 2 0.000000 20.960114 14.639307 420.911072 # O 
33 11 2 0.000000 19.641075 15.476983 419.193481 # O 
34 12 1 0.000000 13.209333 48.414806 36.516041 # C 
35 12 2 0.000000 12.170737 47.908985 36.631744 # O 
36 12 2 0.000000 14.247934 48.920616 36.400352 # O 
37 13 1 0.000000 44.930702 21.203770 112.101906 # C 
38 13 2 0.000000 44.357777 20.590921 112.904465 # O 
39 13 2 0.000000 45.503620 21.816631 111.299355 # O 
40 14 1 0.000000 9.803907 0.552516 306.533875 # C 
41 14 2 0.000000 8.840050 1.144766 306.272827 # O 
42 14 2 0.000000 10.767754 -0.039749 306.794922 # O 
43 15 1 0.000000 24.638483 18.107672 134.318558 # C 
44 15 2 0.000000 24.365643 19.070059 133.729248 # O 
45 15 2 0.000000 24.911314 17.145292 134.907883 # O 
46 16 1 0.000000 41.352905 24.009060 334.750488 # C 
47 16 2 0.000000 41.743912 25.052717 334.425201 # O 
48 16 2 0.000000 40.961914 22.965395 335.075775 # O 
49 17 1 0.000000 13.233849 18.401892 244.933731 # C 
50 17 2 0.000000 12.075799 18.480680 244.958908 # O 
51 17 2 0.000000 14.391901 18.323118 244.908569 # O 
52 18 1 0.000000 20.396488 26.655058 350.978668 # C 
53 18 2 0.000000 19.472660 26.588453 350.278656 # O 
54 18 2 0.000000 21.320318 26.721676 351.678680 # O 
55 19 1 0.000000 38.613033 40.257107 118.503143 # C 
56 19 2 0.000000 39.161469 39.515125 117.798439 # O 
57 19 2 0.000000 38.064602 40.999104 119.207832 # O 
58 20 1 0.000000 28.617167 48.963188 303.371704 # C 
59 20 2 0.000000 29.084831 49.976372 303.692139 # O 
60 20 2 0.000000 28.149515 47.950001 303.051270 # O 
61 21 1 0.000000 11.849616 29.141020 143.569687 # C 
62 21 2 0.000000 12.612527 28.998970 144.433243 # O 
63 21 2 0.000000 11.086693 29.283066 142.706161 # O 
64 22 1 0.000000 31.130384 46.259575 440.524231 # C 
65 22 2 0.000000 30.450420 45.574898 441.169830 # O 
66 22 2 0.000000 31.810358 46.944252 439.878662 # O 
67 23 1 0.000000 8.608148 18.248463 259.821106 # C 
68 23 2 0.000000 8.079476 17.216496 259.880035 # O 
69 23 2 0.000000 9.136834 19.280422 259.762177 # O 
70 24 1 0.000000 11.200080 11.519073 295.931030 # C 
71 24 2 0.000000 12.079006 12.017760 295.359436 # O 
72 24 2 0.000000 10.321166 11.020378 296.502625 # O 
73 25 1 0.000000 16.688795 41.140034 295.271393 # C 
74 25 2 0.000000 17.200762 40.200191 294.821381 # O 
75 25 2 0.000000 16.176844 42.079884 295.721405 # O 
76 26 1 0.000000 39.113708 40.905678 328.772064 # C 
77 26 2 0.000000 38.779350 40.801342 329.878967 # O 
78 26 2 0.000000 39.448086 41.010014 327.665161 # O 

 Bonds

1 1 1 2
2 1 1 3
3 1 4 5
4 1 4 6
5 1 7 8
6 1 7 9
7 1 10 11
8 1 10 12
9 1 13 14
10 1 13 15
11 1 16 17
12 1 16 18
13 1 19 20
14 1 19 21
15 1 22 23
16 1 22 24
17 1 25 26
18 1 25 27
19 1 28 29
20 1 28 30
21 1 31 32
22 1 31 33
23 1 34 35
24 1 34 36
25 1 37 38
26 1 37 39
27 1 40 41
28 1 40 42
29 1 43 44
30 1 43 45
31 1 46 47
32 1 46 48
33 1 49 50
34 1 49 51
35 1 52 53
36 1 52 54
37 1 55 56
38 1 55 57
39 1 58 59
40 1 58 60
41 1 61 62
42 1 61 63
43 1 64 65
44 1 64 66
45 1 67 68
46 1 67 69
47 1 70 71
48 1 70 72
49 1 73 74
50 1 73 75
51 1 76 77
52 1 76 78

 Angles

1 1 2 1 3
2 1 5 4 6
3 1 8 7 9
4 1 11 10 12
5 1 14 13 15
6 1 17 16 18
7 1 20 19 21
8 1 23 22 24
9 1 26 25 27
10 1 29 28 30
11 1 32 31 33
12 1 35 34 36
13 1 38 37 39
14 1 41 40 42
15 1 44 43 45
16 1 47 46 48
17 1 50 49 51
18 1 53 52 54
19 1 56 55 57
20 1 59 58 60
21 1 62 61 63
22 1 65 64 66
23 1 68 67 69
24 1 71 70 72
25 1 74 73 75
26 1 77 76 78

