ITEM: TIMESTEP
0
ITEM: NUMBER OF ATOMS
78
ITEM: BOX BOUNDS pp pp pp
-2.0362049999999998e+00 4.7963794999999998e+01
-3.1688000000000001e-02 4.9968311999999997e+01
6.9957250000000002e+00 4.5699572499999999e+02
ITEM: ATOMS id type x y z q
22 1 0.702872 47.5632 14.5961 0.75957
23 2 0.424044 48.4752 15.2577 -0.379785
24 2 0.981719 46.6513 13.9344 -0.379785
34 1 13.2093 48.4148 36.516 0.75957
35 2 12.171 47.9091 36.6317 -0.379785
36 2 14.2477 48.9205 36.4004 -0.379785
25 1 38.7551 29.5406 80.438 0.75957
26 2 38.9764 30.6784 80.4973 -0.379785
27 2 38.5339 28.4027 80.3786 -0.379785
37 1 44.9307 21.2038 112.102 0.75957
38 2 44.3579 20.5911 112.904 -0.379785
39 2 45.5035 21.8165 111.3 -0.379785
55 1 38.613 40.2571 118.503 0.75957
56 2 39.1613 39.5153 117.799 -0.379785
57 2 38.0647 40.9989 119.208 -0.379785
63 2 11.0869 29.283 142.706 -0.379785
43 1 24.6385 18.1077 134.319 0.75957
44 2 24.3657 19.0698 133.729 -0.379785
45 2 24.9112 17.1455 134.908 -0.379785
61 1 11.8496 29.141 143.57 0.75957
62 2 12.6123 28.999 144.433 -0.379785
1 1 25.4025 40.5086 184.073 0.75957
2 2 25.0648 41.6191 184.071 -0.379785
3 2 25.7401 39.3981 184.075 -0.379785
4 1 38.3989 37.8763 177.975 0.75957
5 2 37.5428 38.4103 178.549 -0.379785
6 2 39.2549 37.3424 177.401 -0.379785
13 1 8.45124 27.7579 189.119 0.75957
14 2 7.84953 28.6883 189.465 -0.379785
15 2 9.05295 26.8275 188.773 -0.379785
7 1 9.52212 44.4659 236.855 0.75957
8 2 9.69283 44.745 235.741 -0.379785
9 2 9.35143 44.1869 237.969 -0.379785
49 1 13.2338 18.4019 244.934 0.75957
50 2 12.0761 18.4807 244.959 -0.379785
51 2 14.3916 18.3231 244.909 -0.379785
67 1 8.60814 18.2485 259.821 0.75957
68 2 8.07962 17.2168 259.88 -0.379785
69 2 9.1367 19.2802 259.762 -0.379785
40 1 9.80391 0.552506 306.534 0.75957
41 2 8.8403 1.14461 306.273 -0.379785
70 1 11.2001 11.5191 295.931 0.75957
71 2 12.0788 12.0176 295.36 -0.379785
72 2 10.3214 11.0205 296.502 -0.379785
59 2 29.0847 -0.0238876 303.692 -0.379785
42 2 10.7675 49.9604 306.795 -0.379785
58 1 28.6172 48.9632 303.372 0.75957
60 2 28.1496 47.9503 303.051 -0.379785
73 1 16.6888 41.14 295.271 0.75957
74 2 17.2006 40.2004 294.821 -0.379785
75 2 16.177 42.0796 295.721 -0.379785
76 1 39.1137 40.9057 328.772 0.75957
77 2 38.7794 40.8014 329.879 -0.379785
78 2 39.448 41.01 327.665 -0.379785
19 1 6.89003 10.6929 346.796 0.75957
20 2 5.76934 10.7014 346.494 -0.379785
21 2 8.01072 10.6845 347.098 -0.379785
46 1 41.3529 24.0091 334.75 0.75957
47 2 41.7438 25.0524 334.425 -0.379785
48 2 40.962 22.9657 335.076 -0.379785
10 1 12.7059 1.84089 360.599 0.75957
11 2 13.5476 1.72948 359.808 -0.379785
12 2 11.8642 1.9523 361.391 -0.379785
52 1 20.3965 26.6551 350.979 0.75957
53 2 19.4729 26.5885 350.279 -0.379785
54 2 21.3201 26.7217 351.679 -0.379785
28 1 24.2095 42.7375 413.588 0.75957
29 2 23.3205 42.452 414.277 -0.379785
30 2 25.0984 43.023 412.898 -0.379785
31 1 20.3006 15.0582 420.052 0.75957
32 2 20.9599 14.6394 420.911 -0.379785
33 2 19.6412 15.4769 419.194 -0.379785
64 1 31.1304 46.2596 440.524 0.75957
65 2 30.4506 45.5751 441.17 -0.379785
66 2 31.8102 46.9441 439.879 -0.379785
16 1 4.97985 22.3503 449.623 0.75957
17 2 5.29778 21.3216 449.19 -0.379785
18 2 4.66189 23.3789 450.057 -0.379785
ITEM: TIMESTEP
100
ITEM: NUMBER OF ATOMS
78
ITEM: BOX BOUNDS pp pp pp
-2.0362049999999998e+00 4.7963794999999998e+01
-3.1688000000000001e-02 4.9968311999999997e+01
6.9957250000000002e+00 4.5699572499999999e+02
ITEM: ATOMS id type x y z q
22 1 0.681583 47.5255 14.6099 0.75957
23 2 0.18192 48.3944 15.1916 -0.379785
24 2 1.17174 46.6767 14.0091 -0.379785
34 1 13.0824 48.4883 36.513 0.75957
35 2 12.0015 48.0975 36.6144 -0.379785
36 2 14.164 48.9036 36.3754 -0.379785
25 1 38.8343 29.3461 80.5306 0.75957
26 2 38.9979 30.4843 80.3433 -0.379785
27 2 38.6931 28.2093 80.7286 -0.379785
37 1 44.8863 21.234 112.098 0.75957
38 2 44.1728 20.4601 112.56 -0.379785
39 2 45.5919 22.0303 111.642 -0.379785
55 1 38.7123 40.2512 118.312 0.75957
56 2 39.2453 39.5992 117.498 -0.379785
57 2 38.2072 40.9145 119.111 -0.379785
63 2 11.1305 29.2092 142.518 -0.379785
43 1 24.6263 18.1414 134.239 0.75957
44 2 24.2746 19.1267 133.761 -0.379785
45 2 24.9637 17.1337 134.715 -0.379785
61 1 11.8234 29.0387 143.422 0.75957
62 2 12.5304 28.8861 144.325 -0.379785
1 1 25.6389 40.421 184.242 0.75957
2 2 25.2849 41.5047 183.944 -0.379785
3 2 26.0352 39.3644 184.497 -0.379785
4 1 38.2544 37.8306 178.033 0.75957
5 2 37.5128 38.3573 178.715 -0.379785
6 2 38.9967 37.2969 177.336 -0.379785
13 1 8.55951 27.7884 189.057 0.75957
14 2 8.03537 28.7291 189.464 -0.379785
15 2 9.04752 26.8311 188.613 -0.379785
7 1 9.46156 44.3962 236.818 0.75957
8 2 9.60426 44.5967 235.686 -0.379785
9 2 9.29768 44.1828 237.935 -0.379785
49 1 13.1302 18.5483 244.877 0.75957
50 2 11.9966 18.7535 244.851 -0.379785
51 2 14.2689 18.3525 244.888 -0.379785
67 1 8.85171 18.3295 259.792 0.75957
68 2 8.80937 17.1908 259.848 -0.379785
69 2 8.89132 19.4642 259.736 -0.379785
40 1 9.67901 0.472624 306.561 0.75957
41 2 8.67834 0.990403 306.228 -0.379785
70 1 11.1562 11.602 296.047 0.75957
71 2 11.9486 12.23 295.467 -0.379785
72 2 10.3753 10.9932 296.653 -0.379785
59 2 29.1346 0.152016 303.648 -0.379785
42 2 10.6572 49.9528 306.875 -0.379785
58 1 28.5486 49.2496 303.234 0.75957
60 2 27.9796 48.2944 302.862 -0.379785
73 1 16.8229 41.2411 295.253 0.75957
74 2 17.2751 40.2436 294.884 -0.379785
75 2 16.3477 42.2236 295.625 -0.379785
76 1 38.9717 40.9925 328.827 0.75957
77 2 38.8162 40.8535 329.959 -0.379785
78 2 39.1755 41.1578 327.688 -0.379785
19 1 6.84559 10.5706 346.823 0.75957
20 2 5.82915 10.5995 346.286 -0.379785
21 2 7.87252 10.5705 347.37 -0.379785
46 1 41.3808 24.101 334.77 0.75957
47 2 41.6871 25.1927 334.575 -0.379785
48 2 41.0968 22.9849 334.997 -0.379785
10 1 12.682 1.86456 360.614 0.75957
11 2 13.6117 1.73273 359.93 -0.379785
12 2 11.7425 1.98285 361.298 -0.379785
52 1 20.377 26.727 351.04 0.75957
53 2 19.497 26.8427 350.303 -0.379785
54 2 21.2611 26.5992 351.763 -0.379785
28 1 24.0304 42.6038 413.494 0.75957
29 2 23.2488 42.2995 414.292 -0.379785
30 2 24.784 42.9037 412.674 -0.379785
31 1 20.3156 15.0531 420.22 0.75957
32 2 20.894 14.5201 421.06 -0.379785
33 2 19.7614 15.6211 419.397 -0.379785
64 1 31.3215 46.1039 440.437 0.75957
65 2 30.6025 45.4452 441.031 -0.379785
66 2 32.0372 46.7942 439.82 -0.379785
16 1 5.015 22.2208 449.804 0.75957
17 2 5.33742 21.2729 449.21 -0.379785
18 2 4.66372 23.1618 450.383 -0.379785
ITEM: TIMESTEP
200
ITEM: NUMBER OF ATOMS
78
ITEM: BOX BOUNDS pp pp pp
-2.0362049999999998e+00 4.7963794999999998e+01
-3.1688000000000001e-02 4.9968311999999997e+01
6.9957250000000002e+00 4.5699572499999999e+02
ITEM: ATOMS id type x y z q
22 1 0.65203 47.4999 14.6254 0.75957
23 2 -0.0353707 48.2753 15.102 -0.379785
24 2 1.34296 46.7312 14.1062 -0.379785
34 1 12.9689 48.5684 36.5052 0.75957
35 2 11.8424 48.2888 36.5972 -0.379785
36 2 14.059 48.8792 36.3537 -0.379785
25 1 38.9132 29.1512 80.6232 0.75957
26 2 39.0113 30.2277 80.1991 -0.379785
27 2 38.8614 28.0773 81.0695 -0.379785
37 1 44.847 21.2778 112.094 0.75957
38 2 44.0738 20.4217 112.163 -0.379785
39 2 45.5899 22.1415 112.038 -0.379785
55 1 38.822 40.2331 118.103 0.75957
56 2 39.3165 39.6998 117.217 -0.379785
57 2 38.3553 40.8226 119.007 -0.379785
63 2 11.1736 29.1335 142.33 -0.379785
43 1 24.6184 18.157 134.165 0.75957
44 2 24.1871 19.1766 133.797 -0.379785
45 2 25.0093 17.1427 134.514 -0.379785
61 1 11.8026 28.9385 143.278 0.75957
62 2 12.4447 28.7728 144.213 -0.379785
1 1 25.8643 40.3625 184.399 0.75957
2 2 25.5382 41.3005 183.844 -0.379785
3 2 26.3073 39.3981 184.904 -0.379785
4 1 38.1157 37.7761 178.075 0.75957
5 2 37.4855 38.3023 178.877 -0.379785
6 2 38.7305 37.2599 177.286 -0.379785
13 1 8.66777 27.8019 188.982 0.75957
14 2 8.22941 28.7594 189.459 -0.379785
15 2 9.03455 26.858 188.467 -0.379785
7 1 9.39832 44.3255 236.766 0.75957
8 2 9.51596 44.4484 235.639 -0.379785
9 2 9.24521 44.1789 237.904 -0.379785
49 1 13.0296 18.6962 244.817 0.75957
50 2 11.9273 19.0232 244.745 -0.379785
51 2 14.1329 18.385 244.867 -0.379785
67 1 9.08812 18.4043 259.771 0.75957
68 2 9.5363 17.3692 259.802 -0.379785
69 2 8.65579 19.449 259.716 -0.379785
40 1 9.52539 0.406027 306.578 0.75957
41 2 8.53566 0.825625 306.19 -0.379785
70 1 11.1162 11.6891 296.16 0.75957
71 2 11.7989 12.4274 295.589 -0.379785
72 2 10.4456 10.9784 296.792 -0.379785
59 2 29.1682 0.307341 303.592 -0.379785
42 2 10.5482 49.9451 306.956 -0.379785
58 1 28.4716 49.5183 303.093 0.75957
60 2 27.8317 48.6743 302.686 -0.379785
73 1 16.9547 41.3358 295.234 0.75957
74 2 17.3478 40.2976 294.948 -0.379785
75 2 16.5229 42.3622 295.526 -0.379785
76 1 38.8364 41.0853 328.864 0.75957
77 2 38.8535 40.9081 330.014 -0.379785
78 2 38.8965 41.2991 327.749 -0.379785
19 1 6.81641 10.452 346.861 0.75957
20 2 5.93471 10.495 346.103 -0.379785
21 2 7.67684 10.4559 347.609 -0.379785
46 1 41.4039 24.1628 334.794 0.75957
47 2 41.6248 25.3168 334.728 -0.379785
48 2 41.2409 23.0434 334.911 -0.379785
10 1 12.6509 1.89007 360.634 0.75957
11 2 13.6622 1.73754 360.063 -0.379785
12 2 11.6397 2.01059 361.191 -0.379785
52 1 20.3559 26.7967 351.095 0.75957
53 2 19.5431 27.0926 350.348 -0.379785
54 2 21.1814 26.483 351.831 -0.379785
28 1 23.8455 42.4688 413.397 0.75957
29 2 23.1956 42.1543 414.288 -0.379785
30 2 24.4542 42.7771 412.47 -0.379785
31 1 20.3425 15.0602 420.398 0.75957
32 2 20.8149 14.4108 421.19 -0.379785
33 2 19.8859 15.7463 419.613 -0.379785
64 1 31.534 45.972 440.33 0.75957
65 2 30.7487 45.3067 440.899 -0.379785
66 2 32.255 46.634 439.77 -0.379785
16 1 5.05131 22.0849 449.98 0.75957
17 2 5.36752 21.2517 449.248 -0.379785
18 2 4.6744 22.9212 450.694 -0.379785
ITEM: TIMESTEP
300
ITEM: NUMBER OF ATOMS
78
ITEM: BOX BOUNDS pp pp pp
-2.0362049999999998e+00 4.7963794999999998e+01
-3.1688000000000001e-02 4.9968311999999997e+01
6.9957250000000002e+00 4.5699572499999999e+02
ITEM: ATOMS id type x y z q
22 1 0.635228 47.4618 14.6286 0.75957
23 2 -0.233356 48.1336 14.9995 -0.379785
24 2 1.48496 46.8173 14.2255 -0.379785
34 1 12.8251 48.6458 36.4942 0.75957
35 2 11.7019 48.4832 36.5804 -0.379785
36 2 13.9563 48.8551 36.3339 -0.379785
25 1 38.9942 28.9493 80.7204 0.75957
26 2 39.0205 29.9154 80.077 -0.379785
27 2 39.0334 28.0036 81.3861 -0.379785
37 1 44.7928 21.3089 112.09 0.75957
38 2 44.0704 20.4908 111.757 -0.379785
39 2 45.5031 22.1553 112.441 -0.379785
55 1 38.9187 40.2351 117.923 0.75957
56 2 39.3862 39.8013 116.938 -0.379785
57 2 38.5161 40.7145 118.877 -0.379785
63 2 11.2182 29.056 142.145 -0.379785
43 1 24.596 18.2016 134.08 0.75957
44 2 24.1094 19.2045 133.84 -0.379785
45 2 25.0557 17.1523 134.312 -0.379785
61 1 11.7768 28.8419 143.124 0.75957
62 2 12.361 28.6574 144.104 -0.379785
1 1 26.122 40.2666 184.57 0.75957
2 2 25.8041 41.0568 183.775 -0.379785
3 2 26.546 39.4983 185.271 -0.379785
4 1 37.9603 37.7356 178.14 0.75957
5 2 37.4677 38.2387 179.027 -0.379785
6 2 38.4653 37.2202 177.23 -0.379785
13 1 8.7585 27.8371 188.911 0.75957
14 2 8.43188 28.7768 189.45 -0.379785
15 2 9.02762 26.8819 188.322 -0.379785
7 1 9.32899 44.2501 236.737 0.75957
8 2 9.42961 44.3015 235.582 -0.379785
9 2 9.19442 44.1762 237.866 -0.379785
49 1 12.9224 18.8481 244.755 0.75957
50 2 11.868 19.2904 244.639 -0.379785
51 2 13.9905 18.419 244.847 -0.379785
67 1 9.3285 18.4809 259.747 0.75957
68 2 10.1929 17.7268 259.75 -0.379785
69 2 8.49097 19.2544 259.704 -0.379785
40 1 9.41822 0.318534 306.613 0.75957
41 2 8.3835 0.663712 306.149 -0.379785
70 1 11.0716 11.7725 296.283 0.75957
71 2 11.6384 12.6128 295.72 -0.379785
72 2 10.5295 10.9794 296.917 -0.379785
59 2 29.1782 0.448741 303.516 -0.379785
42 2 10.412 49.9492 307.027 -0.379785
58 1 28.4266 49.8054 302.982 0.75957
60 2 27.6825 49.0578 302.505 -0.379785
73 1 17.0814 41.4353 295.216 0.75957
74 2 17.4221 40.3533 295.013 -0.379785
75 2 16.702 42.4969 295.426 -0.379785
76 1 38.7113 41.1774 328.94 0.75957
77 2 38.8844 40.9674 330.037 -0.379785
78 2 38.6146 41.4377 327.814 -0.379785
19 1 6.76343 10.3374 346.878 0.75957
20 2 6.0897 10.3872 345.963 -0.379785
21 2 7.44903 10.3399 347.821 -0.379785
46 1 41.4397 24.2779 334.82 0.75957
47 2 41.5547 25.4 334.881 -0.379785
48 2 41.3838 23.104 334.825 -0.379785
10 1 12.6315 1.91374 360.647 0.75957
11 2 13.6898 1.74567 360.21 -0.379785
12 2 11.5507 2.03665 361.075 -0.379785
52 1 20.3417 26.8627 351.156 0.75957
53 2 19.6038 27.3386 350.408 -0.379785
54 2 21.0814 26.3745 351.882 -0.379785
28 1 23.6589 42.3345 413.29 0.75957
29 2 23.152 42.0133 414.272 -0.379785
30 2 24.1136 42.6441 412.286 -0.379785
31 1 20.3678 15.0809 420.571 0.75957
32 2 20.7349 14.3006 421.32 -0.379785
33 2 20.0129 15.8621 419.836 -0.379785
64 1 31.7002 45.8025 440.253 0.75957
65 2 30.9119 45.1797 440.756 -0.379785
66 2 32.4933 46.4887 439.706 -0.379785
16 1 5.08006 21.9563 450.163 0.75957
17 2 5.39249 21.2459 449.302 -0.379785
18 2 4.69622 22.658 450.988 -0.379785
ITEM: TIMESTEP
400
ITEM: NUMBER OF ATOMS
78
ITEM: BOX BOUNDS pp pp pp
-2.0362049999999998e+00 4.7963794999999998e+01
-3.1688000000000001e-02 4.9968311999999997e+01
6.9957250000000002e+00 4.5699572499999999e+02
ITEM: ATOMS id type x y z q
22 1 0.598334 47.4381 14.6402 0.75957
23 2 -0.3959 47.9607 14.8785 -0.379785
24 2 1.6061 46.9231 14.357 -0.379785
34 1 12.7107 48.7319 36.475 0.75957
35 2 11.5511 48.6765 36.5659 -0.379785
36 2 13.8393 48.8273 36.3175 -0.379785
25 1 39.0795 28.7499 80.8186 0.75957
26 2 39.0292 29.552 79.9877 -0.379785
27 2 39.2045 27.9752 81.6711 -0.379785
37 1 44.7548 21.3575 112.096 0.75957
38 2 44.1489 20.6564 111.384 -0.379785
39 2 45.3211 22.0604 112.806 -0.379785
55 1 39.0362 40.2228 117.703 0.75957
56 2 39.4438 39.9132 116.682 -0.379785
57 2 38.6757 40.6068 118.75 -0.379785
63 2 11.2611 28.9788 141.954 -0.379785
43 1 24.5883 18.211 134.002 0.75957
44 2 24.0303 19.2347 133.884 -0.379785
45 2 25.0922 17.1866 134.103 -0.379785
61 1 11.7576 28.7427 142.979 0.75957
62 2 12.2736 28.5416 143.991 -0.379785
1 1 26.3752 40.2081 184.696 0.75957
2 2 26.0892 40.7651 183.757 -0.379785
3 2 26.774 39.6168 185.624 -0.379785
4 1 37.8258 37.677 178.176 0.75957
5 2 37.4515 38.1742 179.18 -0.379785
6 2 38.1797 37.1941 177.195 -0.379785
13 1 8.85496 27.8463 188.822 0.75957
14 2 8.63445 28.8035 189.446 -0.379785
15 2 9.01827 26.9165 188.182 -0.379785
7 1 9.26153 44.1751 236.679 0.75957
8 2 9.34188 44.1528 235.534 -0.379785
9 2 9.14218 44.1735 237.84 -0.379785
49 1 12.821 18.9985 244.693 0.75957
50 2 11.8154 19.5579 244.533 -0.379785
51 2 13.835 18.457 244.826 -0.379785
67 1 9.58497 18.5655 259.708 0.75957
68 2 10.7002 18.2406 259.698 -0.379785
69 2 8.46836 18.8992 259.703 -0.379785
40 1 9.25358 0.248806 306.622 0.75957
41 2 8.25897 0.491644 306.12 -0.379785
70 1 11.0336 11.8674 296.405 0.75957
71 2 11.4674 12.7841 295.86 -0.379785
72 2 10.6183 10.9879 297.035 -0.379785
59 2 29.1978 0.602924 303.444 -0.379785
42 2 10.2885 49.9485 307.105 -0.379785
58 1 28.3519 50.0582 302.855 0.75957
60 2 27.5448 49.46 302.33 -0.379785
73 1 17.2109 41.5275 295.198 0.75957
74 2 17.4949 40.415 295.079 -0.379785
75 2 16.8831 42.6329 295.325 -0.379785
76 1 38.586 41.2817 328.976 0.75957
77 2 38.9146 41.0253 330.065 -0.379785
78 2 38.331 41.5706 327.906 -0.379785
19 1 6.73236 10.2228 346.927 0.75957
20 2 6.26988 10.2775 345.853 -0.379785
21 2 7.17873 10.2234 347.98 -0.379785
46 1 41.4756 24.3306 334.85 0.75957
47 2 41.4841 25.4926 335.034 -0.379785
48 2 41.528 23.2037 334.736 -0.379785
10 1 12.5969 1.93791 360.666 0.75957
11 2 13.7054 1.75605 360.362 -0.379785
12 2 11.4844 2.06048 360.95 -0.379785
52 1 20.3203 26.9344 351.211 0.75957
53 2 19.6863 27.5754 350.487 -0.379785
54 2 20.9647 26.2724 351.918 -0.379785
28 1 23.4657 42.1968 413.187 0.75957
29 2 23.1182 41.8769 414.239 -0.379785
30 2 23.7641 42.5061 412.113 -0.379785
31 1 20.3957 15.0839 420.754 0.75957
32 2 20.6483 14.2003 421.44 -0.379785
33 2 20.1449 15.9817 420.064 -0.379785
64 1 31.9238 45.6789 440.139 0.75957
65 2 31.0525 45.0328 440.628 -0.379785
66 2 32.7151 46.3257 439.654 -0.379785
16 1 5.10869 21.8181 450.335 0.75957
17 2 5.41134 21.2562 449.377 -0.379785
18 2 4.72475 22.3831 451.272 -0.379785
ITEM: TIMESTEP
500
ITEM: NUMBER OF ATOMS
78
ITEM: BOX BOUNDS pp pp pp
-2.0362049999999998e+00 4.7963794999999998e+01
-3.1688000000000001e-02 4.9968311999999997e+01
6.9957250000000002e+00 4.5699572499999999e+02
ITEM: ATOMS id type x y z q
22 1 0.582098 47.4014 14.6487 0.75957
23 2 -0.528741 47.7671 14.7445 -0.379785
24 2 1.68133 47.0584 14.5042 -0.379785
34 1 12.5666 48.8171 36.4579 0.75957
35 2 11.4141 48.8738 36.5503 -0.379785
36 2 13.7272 48.7983 36.3003 -0.379785
25 1 39.1697 28.5473 80.9225 0.75957
26 2 39.0408 29.1469 79.9368 -0.379785
27 2 39.3715 27.9854 81.9162 -0.379785
37 1 44.707 21.3884 112.085 0.75957
38 2 44.3107 20.9244 111.1 -0.379785
39 2 45.0619 21.8773 113.093 -0.379785
55 1 39.144 40.2258 117.516 0.75957
56 2 39.5026 40.0247 116.42 -0.379785
57 2 38.8444 40.488 118.598 -0.379785
63 2 11.3094 28.8998 141.768 -0.379785
43 1 24.5646 18.2514 133.919 0.75957
44 2 23.9631 19.2401 133.932 -0.379785
45 2 25.1282 17.223 133.89 -0.379785
61 1 11.7321 28.6437 142.822 0.75957
62 2 12.1849 28.4248 143.878 -0.379785
1 1 26.6493 40.1164 184.872 0.75957
2 2 26.389 40.4496 183.762 -0.379785
3 2 26.9786 39.7819 185.921 -0.379785
4 1 37.6869 37.6342 178.251 0.75957
5 2 37.4504 38.089 179.297 -0.379785
6 2 37.8785 37.1753 177.168 -0.379785
13 1 8.95085 27.8812 188.752 0.75957
14 2 8.84399 28.8132 189.432 -0.379785
15 2 9.00501 26.9495 188.037 -0.379785
7 1 9.1931 44.1007 236.646 0.75957
8 2 9.25253 44.0007 235.478 -0.379785
9 2 9.0904 44.1716 237.8 -0.379785
49 1 12.712 19.1529 244.631 0.75957
50 2 11.7787 19.8215 244.427 -0.379785
51 2 13.6664 18.4999 244.803 -0.379785
67 1 9.82715 18.6675 259.657 0.75957
68 2 10.9809 18.8338 259.652 -0.379785
69 2 8.68978 18.4539 259.705 -0.379785
40 1 9.13597 0.162563 306.653 0.75957
41 2 8.12113 0.321682 306.086 -0.379785
70 1 10.9922 11.9578 296.538 0.75957
71 2 11.2898 12.9487 296.005 -0.379785
72 2 10.7151 11.0089 297.144 -0.379785
59 2 29.199 0.740434 303.36 -0.379785
42 2 10.1394 49.9558 307.173 -0.379785
58 1 28.3076 50.3386 302.745 0.75957
60 2 27.4009 49.8655 302.151 -0.379785
73 1 17.3418 41.6282 295.18 0.75957
74 2 17.5654 40.4818 295.149 -0.379785
75 2 17.069 42.7602 295.22 -0.379785
76 1 38.4673 41.3767 329.048 0.75957
77 2 38.9404 41.0906 330.063 -0.379785
78 2 38.0433 41.7056 328.001 -0.379785
19 1 6.68561 10.1067 346.943 0.75957
20 2 6.48366 10.1651 345.806 -0.379785
21 2 6.88549 10.1078 348.101 -0.379785
46 1 41.5129 24.4423 334.888 0.75957
47 2 41.4107 25.548 335.184 -0.379785
48 2 41.6748 23.2986 334.645 -0.379785
10 1 12.573 1.95817 360.681 0.75957
11 2 13.7017 1.77035 360.52 -0.379785
12 2 11.4288 2.08383 360.823 -0.379785
52 1 20.3036 27.0033 351.276 0.75957
53 2 19.7892 27.799 350.585 -0.379785
54 2 20.8237 26.1873 351.929 -0.379785
28 1 23.2742 42.06 413.078 0.75957
29 2 23.0918 41.7447 414.187 -0.379785
30 2 23.4006 42.3595 411.96 -0.379785
31 1 20.4088 15.0919 420.917 0.75957
32 2 20.5569 14.1159 421.551 -0.379785
33 2 20.2936 16.0818 420.321 -0.379785
64 1 32.0926 45.5077 440.058 0.75957
65 2 31.2173 44.9025 440.484 -0.379785
66 2 32.959 46.1779 439.59 -0.379785
16 1 5.13126 21.6848 450.517 0.75957
17 2 5.42596 21.276 449.466 -0.379785
18 2 4.76276 22.0913 451.538 -0.379785
ITEM: TIMESTEP
600
ITEM: NUMBER OF ATOMS
78
ITEM: BOX BOUNDS pp pp pp
-2.0362049999999998e+00 4.7963794999999998e+01
-3.1688000000000001e-02 4.9968311999999997e+01
6.9957250000000002e+00 4.5699572499999999e+02
ITEM: ATOMS id type x y z q
22 1 0.548993 47.3689 14.6641 0.75957
23 2 -0.605281 47.5501 14.599 -0.379785
24 2 1.71209 47.213 14.6578 -0.379785
34 1 12.4392 48.9022 36.4413 0.75957
35 2 11.281 49.0759 36.5325 -0.379785
36 2 13.5944 48.7674 36.2842 -0.379785
25 1 39.2632 28.346 81.0265 0.75957
26 2 39.0595 28.7038 79.9355 -0.379785
27 2 39.5318 28.0261 82.1149 -0.379785
37 1 44.6711 21.428 112.094 0.75957
38 2 44.5237 21.2612 110.941 -0.379785
39 2 44.7409 21.6203 113.241 -0.379785
55 1 39.2615 40.2245 117.305 0.75957
56 2 39.5537 40.1431 116.176 -0.379785
57 2 39.0173 40.3654 118.439 -0.379785
63 2 11.3624 28.8194 141.586 -0.379785
43 1 24.5514 18.2744 133.837 0.75957
44 2 23.9002 19.235 133.981 -0.379785
45 2 25.1515 17.2839 133.674 -0.379785
61 1 11.7076 28.5401 142.669 0.75957
62 2 12.0901 28.3096 143.753 -0.379785
1 1 26.9028 40.0402 185.008 0.75957
2 2 26.7214 40.094 183.85 -0.379785
3 2 27.1747 39.9728 186.17 -0.379785
4 1 37.5637 37.5738 178.292 0.75957
5 2 37.4511 37.9927 179.391 -0.379785
6 2 37.5588 37.1793 177.192 -0.379785
13 1 9.05952 27.8947 188.671 0.75957
14 2 9.05531 28.8137 189.41 -0.379785
15 2 8.98361 27.0087 187.905 -0.379785
7 1 9.12856 44.0267 236.596 0.75957
8 2 9.1596 43.8462 235.438 -0.379785
9 2 9.03695 44.1692 237.757 -0.379785
49 1 12.6033 19.3069 244.571 0.75957
50 2 11.7584 20.0787 244.321 -0.379785
51 2 13.4778 18.5547 244.777 -0.379785
67 1 10.0687 18.7555 259.618 0.75957
68 2 11.0185 19.386 259.605 -0.379785
69 2 9.1631 18.0627 259.697 -0.379785
40 1 8.9883 0.0800149 306.668 0.75957
41 2 7.99862 0.146809 306.061 -0.379785
70 1 10.9524 12.0541 296.67 0.75957
71 2 11.1025 13.0981 296.162 -0.379785
72 2 10.8191 11.0438 297.245 -0.379785
59 2 29.1898 0.864611 303.271 -0.379785
42 2 9.99292 49.9625 307.244 -0.379785
58 1 28.235 50.6192 302.608 0.75957
60 2 27.2865 50.2932 301.992 -0.379785
73 1 17.4791 41.7258 295.16 0.75957
74 2 17.6309 40.5652 295.221 -0.379785
75 2 17.2592 42.8765 295.112 -0.379785
76 1 38.3311 41.4753 329.098 0.75957
77 2 38.9655 41.1632 330.043 -0.379785
78 2 37.7652 41.834 328.133 -0.379785
19 1 6.6453 9.98521 346.984 0.75957
20 2 6.71205 10.0517 345.813 -0.379785
21 2 6.57143 9.9933 348.15 -0.379785
46 1 41.5524 24.5145 334.917 0.75957
47 2 41.3371 25.5955 335.337 -0.379785
48 2 41.8214 23.4339 334.56 -0.379785
10 1 12.5425 1.97658 360.696 0.75957
11 2 13.6858 1.78757 360.682 -0.379785
12 2 11.3892 2.1063 360.692 -0.379785
52 1 20.283 27.0785 351.342 0.75957
53 2 19.9153 27.9957 350.71 -0.379785
54 2 20.6618 26.1269 351.915 -0.379785
28 1 23.084 41.9223 412.971 0.75957
29 2 23.0709 41.6191 414.104 -0.379785
30 2 23.0243 42.2023 411.834 -0.379785
31 1 20.4163 15.0877 421.08 0.75957
32 2 20.46 14.0732 421.639 -0.379785
33 2 20.4528 16.1495 420.607 -0.379785
64 1 32.3097 45.3657 439.953 0.75957
65 2 31.3711 44.7636 440.343 -0.379785
66 2 33.1841 46.0119 439.538 -0.379785
16 1 5.1561 21.5469 450.695 0.75957
17 2 5.43209 21.309 449.583 -0.379785
18 2 4.80839 21.7852 451.787 -0.379785
ITEM: TIMESTEP
700
ITEM: NUMBER OF ATOMS
78
ITEM: BOX BOUNDS pp pp pp
-2.0362049999999998e+00 4.7963794999999998e+01
-3.1688000000000001e-02 4.9968311999999997e+01
6.9957250000000002e+00 4.5699572499999999e+02
ITEM: ATOMS id type x y z q
22 1 0.518049 47.3325 14.681 0.75957
23 2 -0.624712 47.3226 14.4521 -0.379785
24 2 1.68314 47.3798 14.8121 -0.379785
34 1 12.3083 48.9847 36.4295 0.75957
35 2 11.166 49.2808 36.5108 -0.379785
36 2 13.4411 48.7389 36.268 -0.379785
25 1 39.3584 28.1432 81.1307 0.75957
26 2 39.0912 28.2324 79.9955 -0.379785
27 2 39.6814 28.0885 82.2559 -0.379785
37 1 44.6316 21.4629 112.094 0.75957
38 2 44.7556 21.629 110.947 -0.379785
39 2 44.4018 21.3372 113.229 -0.379785
55 1 39.3792 40.2249 117.091 0.75957
56 2 39.6008 40.2657 115.949 -0.379785
57 2 39.1984 40.2373 118.259 -0.379785
63 2 11.4207 28.7358 141.412 -0.379785
43 1 24.5394 18.2989 133.752 0.75957
44 2 23.8479 19.2105 134.03 -0.379785
45 2 25.1626 17.3641 133.458 -0.379785
61 1 11.6811 28.4334 142.515 0.75957
62 2 11.9906 28.196 143.614 -0.379785
1 1 27.1501 39.9574 185.176 0.75957
2 2 27.08 39.7271 184.017 -0.379785
3 2 27.3574 40.1773 186.322 -0.379785
4 1 37.4327 37.5174 178.342 0.75957
5 2 37.4548 37.881 179.447 -0.379785
6 2 37.2378 37.1935 177.247 -0.379785
13 1 9.1759 27.9092 188.594 0.75957
14 2 9.26721 28.7912 189.368 -0.379785
15 2 8.95959 27.0909 187.788 -0.379785
7 1 9.06549 43.9526 236.546 0.75957
8 2 9.06362 43.6908 235.41 -0.379785
9 2 8.98275 44.165 237.699 -0.379785
49 1 12.4916 19.4628 244.511 0.75957
50 2 11.7553 20.3247 244.218 -0.379785
51 2 13.2702 18.6251 244.744 -0.379785
67 1 10.3193 18.8253 259.597 0.75957
68 2 10.8819 19.8087 259.562 -0.379785
69 2 9.8133 17.8178 259.671 -0.379785
40 1 8.84077 -0.00727616 306.682 0.75957
41 2 7.88163 -0.0302984 306.041 -0.379785
70 1 10.9109 12.1515 296.802 0.75957
71 2 10.9079 13.2271 296.335 -0.379785
72 2 10.93 11.1018 297.336 -0.379785
59 2 29.1413 0.972212 303.157 -0.379785
42 2 9.83557 49.9718 307.312 -0.379785
58 1 28.177 50.9239 302.473 0.75957
60 2 27.198 50.73 301.853 -0.379785
73 1 17.6213 41.8244 295.14 0.75957
74 2 17.6933 40.6678 295.294 -0.379785
75 2 17.454 42.9767 295.004 -0.379785
76 1 38.1895 41.5667 329.16 0.75957
77 2 38.9738 41.2503 329.986 -0.379785
78 2 37.5032 41.9571 328.294 -0.379785
19 1 6.6015 9.85927 347.018 0.75957
20 2 6.94159 9.93572 345.894 -0.379785
21 2 6.25723 9.88037 348.131 -0.379785
46 1 41.5887 24.6011 334.945 0.75957
47 2 41.269 25.6087 335.482 -0.379785
48 2 41.9664 23.596 334.483 -0.379785
10 1 12.5091 1.993 360.71 0.75957
11 2 13.6538 1.80818 360.848 -0.379785
12 2 11.3669 2.12761 360.559 -0.379785
52 1 20.2628 27.1539 351.413 0.75957
53 2 20.0568 28.1591 350.859 -0.379785
54 2 20.4834 26.1021 351.876 -0.379785
28 1 22.8956 41.7847 412.86 0.75957
29 2 23.0482 41.5003 413.986 -0.379785
30 2 22.6409 42.0329 411.742 -0.379785
31 1 20.4348 15.1005 421.252 0.75957
32 2 20.3611 14.0568 421.713 -0.379785
33 2 20.6066 16.1786 420.908 -0.379785
64 1 32.5132 45.2073 439.857 0.75957
65 2 31.5408 44.6327 440.193 -0.379785
66 2 33.4111 45.8445 439.483 -0.379785
16 1 5.18331 21.4082 450.876 0.75957
17 2 5.42823 21.3508 449.732 -0.379785
18 2 4.86321 21.4658 452.008 -0.379785
ITEM: TIMESTEP
800
ITEM: NUMBER OF ATOMS
78
ITEM: BOX BOUNDS pp pp pp
-2.0362049999999998e+00 4.7963794999999998e+01
-3.1688000000000001e-02 4.9968311999999997e+01
6.9957250000000002e+00 4.5699572499999999e+02
ITEM: ATOMS id type x y z q
22 1 0.495631 47.2977 14.6987 0.75957
23 2 -0.591487 47.0942 14.3129 -0.379785
24 2 1.59407 47.5452 14.9583 -0.379785
34 1 12.1586 49.0719 36.4228 0.75957
35 2 11.0755 49.4822 36.4847 -0.379785
36 2 13.272 48.714 36.2514 -0.379785
25 1 39.4549 27.9381 81.2386 0.75957
26 2 39.1413 27.7482 80.1246 -0.379785
27 2 39.8154 28.1572 82.3291 -0.379785
37 1 44.5873 21.5013 112.096 0.75957
38 2 44.9643 21.9771 111.113 -0.379785
39 2 44.0876 21.0729 113.057 -0.379785
55 1 39.4941 40.2222 116.898 0.75957
56 2 39.646 40.3916 115.733 -0.379785
57 2 39.388 40.1081 118.043 -0.379785
63 2 11.4823 28.6477 141.248 -0.379785
43 1 24.5148 18.3403 133.672 0.75957
44 2 23.8123 19.1622 134.07 -0.379785
45 2 25.1657 17.4565 133.241 -0.379785
61 1 11.6527 28.3274 142.349 0.75957
62 2 11.8885 28.0826 143.468 -0.379785
1 1 27.3932 39.8778 185.344 0.75957
2 2 27.4563 39.3752 184.278 -0.379785
3 2 27.5379 40.3606 186.388 -0.379785
4 1 37.283 37.4641 178.396 0.75957
5 2 37.4591 37.7628 179.489 -0.379785
6 2 36.9228 37.21 177.319 -0.379785
13 1 9.29194 27.9303 188.519 0.75957
14 2 9.47817 28.7504 189.308 -0.379785
15 2 8.94085 27.1877 187.684 -0.379785
7 1 9.00054 43.8803 236.508 0.75957
8 2 8.96627 43.5346 235.387 -0.379785
9 2 8.92842 44.157 237.627 -0.379785
49 1 12.3752 19.6259 244.448 0.75957
50 2 11.7658 20.5568 244.119 -0.379785
51 2 13.0482 18.7105 244.708 -0.379785
67 1 10.5857 18.9021 259.576 0.75957
68 2 10.6353 20.0458 259.528 -0.379785
69 2 10.5722 17.7568 259.635 -0.379785
40 1 8.71823 -0.0949963 306.715 0.75957
41 2 7.76281 -0.210965 306.019 -0.379785
70 1 10.8687 12.2427 296.936 0.75957
71 2 10.7104 13.3335 296.523 -0.379785
72 2 11.0426 11.1908 297.415 -0.379785
59 2 29.0567 1.08225 303.017 -0.379785
42 2 9.65559 49.9816 307.369 -0.379785
58 1 28.1319 51.2297 302.346 0.75957
60 2 27.1332 51.1748 301.729 -0.379785
73 1 17.7649 41.9273 295.12 0.75957
74 2 17.7557 40.7861 295.365 -0.379785
75 2 17.653 43.062 294.897 -0.379785
76 1 38.0581 41.6527 329.235 0.75957
77 2 38.9531 41.3523 329.9 -0.379785
78 2 37.257 42.0735 328.478 -0.379785
19 1 6.5641 9.7317 347.04 0.75957
20 2 7.14952 9.81617 346.049 -0.379785
21 2 5.95811 9.76743 348.049 -0.379785
46 1 41.6138 24.7068 334.982 0.75957
47 2 41.2143 25.5866 335.612 -0.379785
48 2 42.1078 23.7826 334.417 -0.379785
10 1 12.4855 2.00664 360.726 0.75957
11 2 13.5966 1.83329 361.014 -0.379785
12 2 11.3613 2.14731 360.424 -0.379785
52 1 20.243 27.2224 351.485 0.75957
53 2 20.2054 28.2914 351.025 -0.379785
54 2 20.2968 26.1165 351.821 -0.379785
28 1 22.7018 41.6467 412.741 0.75957
29 2 23.0185 41.3869 413.835 -0.379785
30 2 22.2605 41.8526 411.684 -0.379785
31 1 20.4687 15.12 421.443 0.75957
32 2 20.2584 14.0457 421.781 -0.379785
33 2 20.7537 16.1976 421.207 -0.379785
64 1 32.7011 45.037 439.765 0.75957
65 2 31.725 44.5063 440.038 -0.379785
66 2 33.6433 45.6754 439.428 -0.379785
16 1 5.21201 21.2672 451.068 0.75957
17 2 5.4148 21.3954 449.916 -0.379785
18 2 4.92753 21.1396 452.192 -0.379785
ITEM: TIMESTEP
900
ITEM: NUMBER OF ATOMS
78
ITEM: BOX BOUNDS pp pp pp
-2.0362049999999998e+00 4.7963794999999998e+01
-3.1688000000000001e-02 4.9968311999999997e+01
6.9957250000000002e+00 4.5699572499999999e+02
ITEM: ATOMS id type x y z q
22 1 0.453807 47.2588 14.7035 0.75957
23 2 -0.503747 46.8751 14.1923 -0.379785
24 2 1.46398 47.7028 15.0959 -0.379785
34 1 12.0336 49.1512 36.412 0.75957
35 2 10.9869 49.684 36.4579 -0.379785
36 2 13.077 48.6982 36.2381 -0.379785
25 1 39.55 27.7288 81.3434 0.75957
26 2 39.2147 27.2713 80.3269 -0.379785
27 2 39.9308 28.2132 82.3357 -0.379785
37 1 44.5276 21.5346 112.104 0.75957
38 2 45.1194 22.2685 111.413 -0.379785
39 2 43.8364 20.8708 112.746 -0.379785
55 1 39.6137 40.224 116.66 0.75957
56 2 39.6884 40.5134 115.552 -0.379785
57 2 39.5818 39.9797 117.816 -0.379785
63 2 11.5434 28.5572 141.082 -0.379785
43 1 24.5101 18.3552 133.578 0.75957
44 2 23.7796 19.1093 134.108 -0.379785
45 2 25.1502 17.5745 133.035 -0.379785
61 1 11.6279 28.2192 142.193 0.75957
62 2 11.7831 27.9687 143.31 -0.379785
1 1 27.6581 39.7774 185.487 0.75957
2 2 27.8323 39.062 184.613 -0.379785
3 2 27.7163 40.5169 186.402 -0.379785
4 1 37.1052 37.4108 178.432 0.75957
5 2 37.4691 37.6412 179.532 -0.379785