ITEM: TIMESTEP
100
ITEM: NUMBER OF ATOMS
78
ITEM: BOX BOUNDS pp pp pp
-2.0362049999999998e+00 4.7963794999999998e+01
-3.1688000000000001e-02 4.9968311999999997e+01
6.9957250000000002e+00 4.5699572499999999e+02
ITEM: ATOMS id type x y z
22 1 0.684897 47.5195 14.6374
23 2 0.191889 48.4135 15.193
24 2 1.16333 46.6672 13.9859
34 1 13.1074 48.4729 36.5382
35 2 11.9932 48.0843 36.6078
36 2 14.1744 48.9146 36.3657
25 1 38.8136 29.3603 80.5167
26 2 39.0067 30.5104 80.3561
27 2 38.6854 28.2045 80.7103
37 1 44.9118 21.215 112.086
38 2 44.1666 20.4648 112.597
39 2 45.5866 22.0334 111.614
55 1 38.6974 40.2296 118.317
56 2 39.2494 39.5927 117.509
57 2 38.1961 40.9375 119.128
43 1 24.6479 18.1384 134.254
44 2 24.2691 19.1354 133.748
45 2 24.9558 17.1231 134.73
61 1 11.8169 29.026 143.439
62 2 12.5465 28.8987 144.339
63 2 11.1226 29.222 142.516
6 2 39.0133 37.2943 177.33
4 1 38.2869 37.8307 178.037
13 1 8.58866 27.7844 189.083
15 2 9.04068 26.8212 188.612
1 1 25.5893 40.4377 184.249
2 2 25.2797 41.523 183.947
3 2 26.0361 39.3464 184.464
5 2 37.4956 38.3677 178.708
14 2 8.00457 28.7379 189.459
7 1 9.48868 44.416 236.818
8 2 9.60206 44.6035 235.677
9 2 9.29078 44.1734 237.951
49 1 13.1366 18.5284 244.897
50 2 11.9875 18.7426 244.852
51 2 14.29 18.3536 244.883
67 1 8.86976 18.3182 259.762
68 2 8.74587 17.1791 259.862
69 2 8.90112 19.4712 259.748
70 1 11.1553 11.5867 296.018
71 2 11.9688 12.2264 295.461
73 1 16.8395 41.2457 295.25
74 2 17.2669 40.226 294.877
75 2 16.3227 42.222 295.637
40 1 9.67281 0.4949 306.563
41 2 8.68109 1.00013 306.226
72 2 10.3623 10.9934 296.66
59 2 29.1459 0.149589 303.668
42 2 10.681 49.9396 306.872
58 1 28.5287 49.2431 303.207
60 2 27.9935 48.2576 302.882
78 2 39.2068 41.1558 327.681
46 1 41.3549 24.0788 334.751
48 2 41.0923 22.9773 335.012
47 2 41.705 25.2032 334.569
76 1 38.9494 40.972 328.803
77 2 38.8222 40.8548 329.975
19 1 6.85976 10.5504 346.823
20 2 5.80688 10.6162 346.294
21 2 7.89085 10.5876 347.358
11 2 13.619 1.72738 359.911
52 1 20.3666 26.7386 351.048
53 2 19.489 26.8199 350.288
54 2 21.28 26.6021 351.762
10 1 12.6832 1.87367 360.619
12 2 11.7389 1.97827 361.311
28 1 24.0622 42.6146 413.525
30 2 24.8055 42.9125 412.67
31 1 20.2955 15.0066 420.201
32 2 20.9116 14.5412 421.061
33 2 19.7549 15.6336 419.381
29 2 23.2347 42.305 414.29
64 1 31.3461 46.1129 440.438
65 2 30.5721 45.4455 441.049
66 2 32.0176 46.8109 439.818
16 1 5.03696 22.2276 449.801
17 2 5.3309 21.2637 449.2
18 2 4.64965 23.1878 450.365
ITEM: TIMESTEP
200
ITEM: NUMBER OF ATOMS
78
ITEM: BOX BOUNDS pp pp pp
-2.0362049999999998e+00 4.7963794999999998e+01
-3.1688000000000001e-02 4.9968311999999997e+01
6.9957250000000002e+00 4.5699572499999999e+02
ITEM: ATOMS id type x y z
22 1 0.661826 47.4838 14.6494
23 2 -0.0311893 48.3042 15.1074
24 2 1.33549 46.7195 14.0816
34 1 12.9756 48.5481 36.5303
35 2 11.8368 48.2765 36.5933
36 2 14.0805 48.8931 36.3415
25 1 38.8945 29.161 80.6115
26 2 39.0229 30.2602 80.21
27 2 38.8492 28.0695 81.0513
37 1 44.8688 21.2485 112.083
38 2 44.061 20.4185 112.202
39 2 45.5941 22.1603 112.006
55 1 38.7995 40.2264 118.125
56 2 39.3223 39.6852 117.22
57 2 38.3481 40.8424 119.021
43 1 24.6334 18.172 134.172
44 2 24.1838 19.1818 133.785
45 2 25.0041 17.122 134.533
61 1 11.7908 28.9256 143.289
62 2 12.4634 28.7861 144.233
63 2 11.1672 29.1458 142.326
6 2 38.7521 37.2502 177.269
4 1 38.1419 37.7858 178.096
13 1 8.69132 27.8099 189.013
15 2 9.03085 26.8366 188.461
1 1 25.8332 40.3508 184.411
2 2 25.5225 41.3416 183.843
3 2 26.3044 39.3787 184.871
5 2 37.4681 38.3126 178.869
14 2 8.19961 28.7707 189.455
7 1 9.42554 44.3444 236.78
8 2 9.51211 44.4574 235.621
9 2 9.23994 44.1681 237.918
49 1 13.0303 18.6765 244.838
50 2 11.9166 19.014 244.744
51 2 14.1599 18.3842 244.862
67 1 9.11576 18.4157 259.726
68 2 9.473 17.3272 259.823
69 2 8.65804 19.4693 259.733
70 1 11.1127 11.6725 296.138
71 2 11.8229 12.4244 295.577
73 1 16.9722 41.3435 295.231
74 2 17.3402 40.2745 294.94
75 2 16.4965 42.3636 295.54
40 1 9.54708 0.412982 306.588
41 2 8.52779 0.840447 306.183
72 2 10.4307 10.979 296.8
59 2 29.1752 0.304354 303.61
42 2 10.5618 49.9385 306.952
58 1 28.4711 49.5325 303.082
60 2 27.8355 48.6223 302.696
78 2 38.9271 41.3 327.725
46 1 41.3883 24.1744 334.773
48 2 41.23 23.0186 334.927
47 2 41.6413 25.3191 334.723
76 1 38.814 41.0621 328.868
77 2 38.8604 40.9086 330.027
19 1 6.81367 10.431 346.851
20 2 5.91322 10.5104 346.109
21 2 7.70709 10.4748 347.605
11 2 13.6682 1.73391 360.047
52 1 20.3497 26.8097 351.11
53 2 19.5303 27.0692 350.325
54 2 21.2017 26.4854 351.834
10 1 12.6578 1.89624 360.634
12 2 11.6329 2.0065 361.205
28 1 23.8838 42.4819 413.423
30 2 24.4776 42.7853 412.463
31 1 20.3085 15.0141 420.363
32 2 20.845 14.4256 421.204
33 2 19.8773 15.7649 419.597
29 2 23.1749 42.1588 414.293
64 1 31.5291 45.9541 440.355
65 2 30.7283 45.3156 440.911
66 2 32.2476 46.6625 439.756
16 1 5.06908 22.0969 449.98
17 2 5.36601 21.238 449.235
18 2 4.65844 22.9479 450.678
ITEM: TIMESTEP
300
ITEM: NUMBER OF ATOMS
78
ITEM: BOX BOUNDS pp pp pp
-2.0362049999999998e+00 4.7963794999999998e+01
-3.1688000000000001e-02 4.9968311999999997e+01
6.9957250000000002e+00 4.5699572499999999e+02
ITEM: ATOMS id type x y z
22 1 0.636751 47.4568 14.6481
23 2 -0.228946 48.164 15.0077
24 2 1.48351 46.7958 14.2014
34 1 12.8387 48.6349 36.5049
35 2 11.6856 48.4681 36.5866
36 2 13.9835 48.8646 36.3223
25 1 38.9868 28.9614 80.7132
26 2 39.0327 29.9565 80.0813
27 2 39.0121 27.9858 81.3711
37 1 44.8175 21.2949 112.084
38 2 44.051 20.4694 111.791
39 2 45.5116 22.1808 112.412
55 1 38.912 40.2322 117.932
56 2 39.3852 39.7801 116.939
57 2 38.5039 40.7382 118.901
43 1 24.6073 18.2012 134.088
44 2 24.108 19.2188 133.829
45 2 25.0514 17.1341 134.33
61 1 11.7711 28.8354 143.136
62 2 12.3763 28.6704 144.126
63 2 11.2106 29.0638 142.14
6 2 38.4778 37.2156 177.225
4 1 37.994 37.7364 178.145
13 1 8.77502 27.8313 188.927
15 2 9.02745 26.8565 188.317
1 1 26.0957 40.2774 184.557
2 2 25.7782 41.1073 183.77
3 2 26.5495 39.4526 185.26
5 2 37.4541 38.2506 179.02
14 2 8.40374 28.8025 189.455
7 1 9.34897 44.2648 236.739
8 2 9.42519 44.314 235.567
9 2 9.19523 44.1651 237.887
49 1 12.9255 18.8318 244.77
50 2 11.8569 19.2805 244.64
51 2 14.0162 18.4162 244.845
67 1 9.34684 18.5061 259.701
68 2 10.1389 17.6695 259.77
69 2 8.49059 19.2797 259.724
70 1 11.0737 11.7659 296.272
71 2 11.6646 12.611 295.697
73 1 17.0913 41.4354 295.215
74 2 17.4182 40.3312 295.002
75 2 16.6775 42.5028 295.441
40 1 9.42135 0.325567 306.609
41 2 8.38056 0.679291 306.145
72 2 10.5082 10.9713 296.927
59 2 29.1951 0.464768 303.542
42 2 10.4347 49.9419 307.031
58 1 28.4209 49.7967 302.975
60 2 27.6804 49.0039 302.505
78 2 38.6357 41.4387 327.784
46 1 41.4322 24.2656 334.812
48 2 41.3653 23.0786 334.834
47 2 41.5728 25.4207 334.873
76 1 38.7036 41.164 328.931
77 2 38.8899 40.9604 330.065
19 1 6.76979 10.3275 346.879
20 2 6.06199 10.3957 345.958
21 2 7.47869 10.3575 347.821
11 2 13.7033 1.74528 360.193
52 1 20.3368 26.8718 351.165
53 2 19.5934 27.3168 350.382
54 2 21.0985 26.3782 351.892
10 1 12.6321 1.91225 360.647
12 2 11.5412 2.03507 361.09
28 1 23.6879 42.346 413.308
30 2 24.1445 42.6528 412.276
31 1 20.339 15.0425 420.54
32 2 20.7701 14.3064 421.336
33 2 19.9953 15.8839 419.814
29 2 23.1309 42.0185 414.286
64 1 31.706 45.811 440.259
65 2 30.887 45.1784 440.778
66 2 32.4823 46.5076 439.696
16 1 5.08646 21.9645 450.154
17 2 5.40064 21.229 449.287
18 2 4.67912 22.6907 450.98
ITEM: TIMESTEP
400
ITEM: NUMBER OF ATOMS
78
ITEM: BOX BOUNDS pp pp pp
-2.0362049999999998e+00 4.7963794999999998e+01
-3.1688000000000001e-02 4.9968311999999997e+01
6.9957250000000002e+00 4.5699572499999999e+02
ITEM: ATOMS id type x y z
22 1 0.599852 47.4408 14.6375
23 2 -0.391005 47.9919 14.8945
24 2 1.6042 46.895 14.3419
34 1 12.7176 48.7331 36.4632
35 2 11.5361 48.6618 36.5865
36 2 13.8704 48.8272 36.3085
25 1 39.0893 28.7683 80.8162
26 2 39.0401 29.5985 79.9819
27 2 39.1715 27.9473 81.6625
37 1 44.7586 21.3522 112.096
38 2 44.1365 20.6227 111.409
39 2 45.3384 22.0914 112.781
55 1 39.0426 40.2372 117.714
56 2 39.4353 39.88 116.678
57 2 38.6611 40.6294 118.778
43 1 24.5829 18.2045 134.003
44 2 24.0376 19.2521 133.88
45 2 25.0916 17.1697 134.119
61 1 11.7614 28.7515 142.988
62 2 12.2836 28.5531 144.011
63 2 11.2517 28.9768 141.953
6 2 38.1912 37.1916 177.204
4 1 37.8418 37.6808 178.178
13 1 8.84289 27.8465 188.824
15 2 9.02801 26.889 188.184
1 1 26.3745 40.2068 184.682
2 2 26.0493 40.8233 183.741
3 2 26.772 39.5727 185.625
5 2 37.4524 38.1817 179.161
14 2 8.61772 28.8268 189.456
7 1 9.26229 44.1779 236.681
8 2 9.33968 44.172 235.522
9 2 9.15532 44.1648 237.857
49 1 12.8285 18.9904 244.695
50 2 11.807 19.5426 244.538
51 2 13.8547 18.4531 244.831
67 1 9.57652 18.5781 259.686
68 2 10.6625 18.1753 259.705
69 2 8.47152 18.9418 259.717
70 1 11.0402 11.8713 296.414
71 2 11.4914 12.7832 295.824
73 1 17.2 41.5207 295.2
74 2 17.5002 40.3995 295.065
75 2 16.8649 42.6373 295.341
40 1 9.26153 0.242382 306.61
41 2 8.25223 0.513601 306.117
72 2 10.5958 10.9709 297.043
59 2 29.2094 0.626595 303.467
42 2 10.3116 49.945 307.114
58 1 28.359 50.0325 302.869
60 2 27.5384 49.4108 302.318
78 2 38.3385 41.5688 327.873
46 1 41.4862 24.3239 334.861
48 2 41.4983 23.1717 334.736
47 2 41.4996 25.5156 335.021
76 1 38.6054 41.2812 328.971
77 2 38.9134 41.0111 330.092
19 1 6.73388 10.2362 346.926
20 2 6.24622 10.274 345.843
21 2 7.20802 10.2357 347.985
11 2 13.7264 1.76081 360.346
52 1 20.3214 26.9313 351.208
53 2 19.6804 27.5558 350.465
54 2 20.9729 26.2829 351.933
10 1 12.5951 1.924 360.662
12 2 11.4692 2.06306 360.967
28 1 23.4722 42.2036 413.192
30 2 23.8048 42.5152 412.107
31 1 20.3877 15.0783 420.739
32 2 20.6799 14.1975 421.446
33 2 20.1153 15.9874 420.04
29 2 23.1045 41.8854 414.258
64 1 31.9018 45.6958 440.141
65 2 31.0411 45.0315 440.651
66 2 32.7111 46.3385 439.645
16 1 5.09392 21.8263 450.319
17 2 5.4318 21.238 449.361
18 2 4.71122 22.4174 451.27
ITEM: TIMESTEP
500
ITEM: NUMBER OF ATOMS
78
ITEM: BOX BOUNDS pp pp pp
-2.0362049999999998e+00 4.7963794999999998e+01
-3.1688000000000001e-02 4.9968311999999997e+01
6.9957250000000002e+00 4.5699572499999999e+02
ITEM: ATOMS id type x y z
22 1 0.585563 47.4144 14.6158
23 2 -0.51978 47.7981 14.7724
24 2 1.67395 47.023 14.4998
34 1 12.5679 48.8342 36.4194
35 2 11.4122 48.8601 36.5869
36 2 13.7498 48.7851 36.2953
25 1 39.1975 28.5752 80.9211
26 2 39.0508 29.1916 79.9233
27 2 39.3258 27.9525 81.9144
37 1 44.6802 21.3949 112.091
38 2 44.3101 20.8781 111.119
39 2 45.0905 21.912 113.07
55 1 39.1635 40.2595 117.533
56 2 39.4833 39.9783 116.416
57 2 38.8305 40.5092 118.622
43 1 24.5387 18.2384 133.914
44 2 23.9831 19.2574 133.938
45 2 25.1304 17.2111 133.902
61 1 11.7494 28.672 142.828
62 2 12.1893 28.4351 143.891
63 2 11.2956 28.8845 141.775
6 2 37.8983 37.1706 177.193
4 1 37.673 37.6413 178.243
13 1 8.89983 27.893 188.737
15 2 9.03087 26.9296 188.054
1 1 26.6803 40.1094 184.848
2 2 26.3368 40.5039 183.754
3 2 26.9645 39.7461 185.92
5 2 37.4657 38.0964 179.269
14 2 8.84023 28.8202 189.439
7 1 9.16864 44.0875 236.65
8 2 9.25344 44.029 235.475
9 2 9.1195 44.1659 237.808
49 1 12.7289 19.154 244.615
50 2 11.7722 19.7976 244.437
51 2 13.6774 18.4976 244.816
67 1 9.81746 18.6387 259.678
68 2 10.9736 18.7701 259.639
69 2 8.66316 18.5258 259.707
70 1 11.0035 11.9715 296.569
71 2 11.3065 12.9424 295.962
73 1 17.3023 41.6155 295.188
74 2 17.5843 40.4778 295.126
75 2 17.0584 42.7573 295.239
40 1 9.15456 0.141603 306.637
41 2 8.11044 0.350936 306.084
72 2 10.6964 10.9899 297.142
59 2 29.1957 0.771203 303.368
42 2 10.1586 49.956 307.184
58 1 28.3186 50.2775 302.78
60 2 27.4067 49.8353 302.138
78 2 38.0408 41.6942 327.984
46 1 41.5441 24.4374 334.922
48 2 41.6318 23.2716 334.636
47 2 41.424 25.5645 335.163
76 1 38.5198 41.3961 329.037
77 2 38.9247 41.0709 330.079
19 1 6.68341 10.1497 346.939
20 2 6.46385 10.1465 345.8
21 2 6.91377 10.1131 348.104
11 2 13.7266 1.78102 360.506
52 1 20.3106 26.9844 351.252
53 2 19.7859 27.7787 350.572
54 2 20.8248 26.2104 351.951
10 1 12.5715 1.93103 360.672
12 2 11.4093 2.09042 360.841
28 1 23.2484 42.0581 413.076
30 2 23.4532 42.3693 411.965
31 1 20.4407 15.1197 420.942
32 2 20.5783 14.1138 421.535
33 2 20.2441 16.0618 420.289
29 2 23.0909 41.7592 414.202
64 1 32.0477 45.5424 440.05
65 2 31.2207 44.9009 440.51
66 2 32.9571 46.1779 439.586
16 1 5.09141 21.6935 450.495
17 2 5.45751 21.2589 449.456
18 2 4.75693 22.1243 451.535
ITEM: TIMESTEP
600
ITEM: NUMBER OF ATOMS
78
ITEM: BOX BOUNDS pp pp pp
-2.0362049999999998e+00 4.7963794999999998e+01
-3.1688000000000001e-02 4.9968311999999997e+01
6.9957250000000002e+00 4.5699572499999999e+02
ITEM: ATOMS id type x y z
22 1 0.552964 47.393 14.6025
23 2 -0.59452 47.5837 14.6406
24 2 1.70257 47.1668 14.6614
34 1 12.4476 48.9328 36.3777
35 2 11.2927 49.0621 36.5854
36 2 13.5983 48.7441 36.2819
25 1 39.3037 28.3838 81.0192
26 2 39.0724 28.7443 79.9203
27 2 39.4734 27.9903 82.119
37 1 44.6125 21.4453 112.099
38 2 44.534 21.2021 110.952
39 2 44.7824 21.6595 113.227
55 1 39.2937 40.2699 117.317
56 2 39.5234 40.0844 116.181
57 2 39.0047 40.3901 118.46
43 1 24.5128 18.2464 133.826
44 2 23.9317 19.2546 133.999
45 2 25.1517 17.2809 133.679
61 1 11.7397 28.5861 142.678
62 2 12.0922 28.3204 143.759
63 2 11.3397 28.7905 141.598
6 2 37.593 37.1639 177.219
4 1 37.5112 37.5867 178.278
13 1 8.9706 27.9191 188.641
15 2 9.03016 26.9958 187.938
1 1 26.9712 40.0287 184.973
2 2 26.6564 40.1488 183.857
3 2 27.1449 39.9399 186.163
5 2 37.4812 38.0065 179.366
14 2 9.05913 28.8042 189.412
7 1 9.08042 43.9983 236.598
8 2 9.16176 43.8835 235.442
9 2 9.08272 44.1661 237.758
49 1 12.6337 19.3132 244.539
50 2 11.7484 20.0473 244.335
51 2 13.4823 18.5557 244.797
67 1 10.0865 18.7071 259.666
68 2 11.0463 19.3397 259.579
69 2 9.0802 18.1318 259.691
70 1 10.9683 12.0773 296.717
71 2 11.1128 13.081 296.118
73 1 17.4122 41.7093 295.174
74 2 17.6663 40.57 295.188
75 2 17.2527 42.8673 295.138
40 1 9.00133 0.0515281 306.642
41 2 7.99201 0.180112 306.063
72 2 10.8033 11.0283 297.232
59 2 29.1751 0.911177 303.263
42 2 10.0125 49.9645 307.258
58 1 28.2335 50.5129 302.655
60 2 27.3133 50.2807 301.986
78 2 37.7617 41.8094 328.14
46 1 41.6026 24.4948 334.967
48 2 41.7666 23.4211 334.547
47 2 41.3479 25.6088 335.307
76 1 38.4064 41.5199 329.064
77 2 38.934 41.1377 330.053
19 1 6.64097 10.0563 346.986
20 2 6.69227 10.0171 345.808
21 2 6.60133 9.99377 348.147
11 2 13.7115 1.80316 360.669
52 1 20.2931 27.0483 351.293
53 2 19.9089 27.9731 350.702
54 2 20.6637 26.1605 351.951
10 1 12.5381 1.94038 360.685
12 2 11.3712 2.11475 360.711
28 1 23.027 41.9093 412.973
30 2 23.0902 42.2151 411.845
31 1 20.4884 15.1285 421.152
32 2 20.4747 14.0682 421.609
33 2 20.3798 16.1226 420.553
29 2 23.0804 41.6392 414.109
64 1 32.2613 45.4255 439.929
65 2 31.3818 44.757 440.377
66 2 33.1773 45.9984 439.538
16 1 5.09562 21.5551 450.666
17 2 5.47117 21.2906 449.583
18 2 4.81048 21.8202 451.778
ITEM: TIMESTEP
700
ITEM: NUMBER OF ATOMS
78
ITEM: BOX BOUNDS pp pp pp
-2.0362049999999998e+00 4.7963794999999998e+01
-3.1688000000000001e-02 4.9968311999999997e+01
6.9957250000000002e+00 4.5699572499999999e+02
ITEM: ATOMS id type x y z
22 1 0.533087 47.363 14.6015
23 2 -0.628311 47.3624 14.5037
24 2 1.67972 47.3226 14.819
34 1 12.3144 49.0244 36.3523
35 2 11.1868 49.2679 36.5764
36 2 13.4379 48.7078 36.263
25 1 39.4029 28.1858 81.1155
26 2 39.1102 28.2729 79.9778
27 2 39.6137 28.0495 82.2683
37 1 44.553 21.488 112.083
38 2 44.7718 21.5614 110.943
39 2 44.4526 21.379 113.242
55 1 39.4134 40.275 117.112
56 2 39.5639 40.1942 115.951
57 2 39.1906 40.2712 118.275
43 1 24.4895 18.2698 133.74
44 2 23.8893 19.23 134.058
45 2 25.1614 17.362 133.452
61 1 11.7229 28.4913 142.524
62 2 11.9964 28.2087 143.621
63 2 11.3872 28.6964 141.424
6 2 37.281 37.161 177.257
4 1 37.3514 37.5426 178.346
13 1 9.06437 27.9578 188.568
15 2 9.02431 27.0646 187.817
1 1 27.2585 39.9456 185.163
2 2 26.9959 39.7859 184.01
3 2 27.3179 40.1405 186.312
5 2 37.4963 37.9031 179.427
14 2 9.26967 28.7769 189.371
7 1 9.00227 43.9161 236.557
8 2 9.06333 43.7327 235.41
9 2 9.04245 44.1635 237.699
49 1 12.5324 19.4707 244.469
50 2 11.736 20.2907 244.232
51 2 13.2763 18.6273 244.773
67 1 10.3584 18.7901 259.646
68 2 10.928 19.7853 259.534
69 2 9.69584 17.854 259.667
70 1 10.9293 12.1761 296.858
71 2 10.917 13.2052 296.29
73 1 17.536 41.8111 295.156
74 2 17.7448 40.6681 295.251
75 2 17.4449 42.9693 295.038
40 1 8.86463 -0.0378213 306.663
41 2 7.87255 0.00450692 306.041
72 2 10.9134 11.0898 297.317
59 2 29.1297 1.0369 303.145
42 2 9.84971 49.974 307.324
58 1 28.1721 50.7858 302.534
60 2 27.2244 50.7228 301.841
78 2 37.4931 41.9258 328.305
46 1 41.6452 24.59 335.009
48 2 41.9074 23.5802 334.464
47 2 41.2793 25.6184 335.448
76 1 38.2824 41.6265 329.119
77 2 38.9358 41.2197 329.998
19 1 6.59754 9.94816 347.012
20 2 6.91905 9.89058 345.887
21 2 6.28966 9.87828 348.137
11 2 13.6762 1.826 360.834
52 1 20.2749 27.1179 351.345
53 2 20.0431 28.141 350.846
54 2 20.4911 26.1356 351.931
10 1 12.5074 1.95409 360.698
12 2 11.3502 2.13585 360.579
28 1 22.8201 41.7625 412.873
30 2 22.7171 42.0519 411.746
31 1 20.5184 15.1345 421.341
32 2 20.3761 14.0343 421.689
33 2 20.5247 16.1743 420.835
29 2 23.0617 41.5214 413.989
64 1 32.4457 45.2655 439.834
65 2 31.5562 44.6275 440.232
66 2 33.4136 45.831 439.479
16 1 5.11107 21.4166 450.847
17 2 5.47271 21.3253 449.735
18 2 4.86868 21.5081 451.996
ITEM: TIMESTEP
800
ITEM: NUMBER OF ATOMS
78
ITEM: BOX BOUNDS pp pp pp
-2.0362049999999998e+00 4.7963794999999998e+01
-3.1688000000000001e-02 4.9968311999999997e+01
6.9957250000000002e+00 4.5699572499999999e+02
ITEM: ATOMS id type x y z
22 1 0.51356 47.3294 14.6185
23 2 -0.617846 47.1398 14.3634
24 2 1.6113 47.4812 14.9668
34 1 12.1739 49.1095 36.3461
35 2 11.088 49.4777 36.5596
36 2 13.2703 48.6759 36.237
25 1 39.4935 27.9782 81.216
26 2 39.1661 27.7903 80.0965
27 2 39.746 28.1187 82.3574
37 1 44.5108 21.5309 112.077
38 2 44.9832 21.9138 111.084
39 2 44.1341 21.1069 113.1
55 1 39.5244 40.2673 116.917
56 2 39.6051 40.3105 115.727
57 2 39.3871 40.1555 118.069
43 1 24.4689 18.3097 133.661
44 2 23.8565 19.1851 134.11
45 2 25.1587 17.452 133.223
61 1 11.6968 28.3861 142.364
62 2 11.902 28.0995 143.481
63 2 11.4392 28.6035 141.25
6 2 36.9628 37.1672 177.32
4 1 37.2 37.4921 178.406
13 1 9.18435 27.9825 188.499
15 2 9.0091 27.1427 187.694
1 1 27.5166 39.8668 185.323
2 2 27.3629 39.4253 184.241
3 2 27.4962 40.3321 186.412
5 2 37.505 37.7932 179.471
14 2 9.47396 28.752 189.325
7 1 8.93731 43.8439 236.521
8 2 8.95674 43.5742 235.376
9 2 8.99751 44.1579 237.636
49 1 12.421 19.6296 244.407
50 2 11.7346 20.5274 244.127
51 2 13.0626 18.711 244.741
67 1 10.626 18.8948 259.616
68 2 10.691 20.0361 259.505
69 2 10.4437 17.7581 259.632
70 1 10.8872 12.2648 296.988
71 2 10.721 13.319 296.478
73 1 17.6778 41.9185 295.134
74 2 17.8179 40.7701 295.315
75 2 17.6343 43.0672 294.939
40 1 8.73923 -0.119024 306.699
41 2 7.75401 -0.179311 306.017
72 2 11.0245 11.1733 297.399
59 2 29.0793 1.15749 303.026
42 2 9.67187 49.9822 307.379
58 1 28.0987 51.085 302.392
60 2 27.1468 51.1617 301.707
78 2 37.2393 42.045 328.483
46 1 41.672 24.6866 335.039
48 2 42.0534 23.7594 334.393
47 2 41.2187 25.6102 335.587
76 1 38.1366 41.7208 329.18
77 2 38.9339 41.3125 329.928
19 1 6.56003 9.82119 347.037
20 2 7.12943 9.76833 346.026
21 2 5.9882 9.76781 348.069
11 2 13.6186 1.8485 360.999
52 1 20.255 27.1915 351.41
53 2 20.1868 28.2829 351.002
54 2 20.3096 26.1365 351.89
10 1 12.4851 1.97373 360.715
12 2 11.344 2.15364 360.445
28 1 22.6296 41.6204 412.768
30 2 22.3355 41.879 411.668
31 1 20.5297 15.1276 421.512
32 2 20.2811 14.0133 421.772
33 2 20.681 16.223 421.134
29 2 23.0311 41.4039 413.849
64 1 32.6538 45.0991 439.738
65 2 31.7244 44.4974 440.085
66 2 33.6465 45.6628 439.417
16 1 5.14212 21.2755 451.041
17 2 5.4615 21.3617 449.907
18 2 4.92898 21.1905 452.191
ITEM: TIMESTEP
900
ITEM: NUMBER OF ATOMS
78
ITEM: BOX BOUNDS pp pp pp
-2.0362049999999998e+00 4.7963794999999998e+01
-3.1688000000000001e-02 4.9968311999999997e+01
6.9957250000000002e+00 4.5699572499999999e+02
ITEM: ATOMS id type x y z
22 1 0.471994 47.2869 14.6431
23 2 -0.549989 46.9238 14.2273
24 2 1.50093 47.6386 15.105
34 1 12.0504 49.179 36.352
35 2 10.9922 49.6937 36.5375
36 2 13.0817 48.6531 36.2064
25 1 39.5755 27.76 81.3188
26 2 39.2431 27.311 80.2803
27 2 39.8677 28.1841 82.3838
37 1 44.4747 21.5641 112.085
38 2 45.1365 22.2209 111.364
39 2 43.8671 20.889 112.81
55 1 39.632 40.2534 116.68
56 2 39.6462 40.4309 115.529
57 2 39.5911 40.0401 117.859
43 1 24.4755 18.331 133.571
44 2 23.8264 19.1333 134.16
45 2 25.1321 17.5641 133.002
61 1 11.6651 28.2683 142.21
62 2 11.8063 27.9938 143.333
63 2 11.4958 28.5123 141.074
6 2 36.6448 37.1829 177.414
4 1 37.0494 37.4348 178.451
13 1 9.31854 27.9837 188.418
15 2 8.9898 27.2409 187.583
1 1 27.7581 39.7871 185.488
2 2 27.7478 39.0842 184.542
3 2 27.6801 40.5014 186.446
5 2 37.5066 37.6769 179.498
14 2 9.67585 28.7257 189.274
7 1 8.88208 43.7709 236.459
8 2 8.84305 43.4125 235.356
9 2 8.94937 44.1527 237.575
49 1 12.3042 19.785 244.353
50 2 11.7427 20.7579 244.023
51 2 12.8389 18.8101 244.702
67 1 10.876 18.9938 259.578
68 2 10.4296 20.0598 259.493
69 2 11.2397 17.897 259.585
70 1 10.8394 12.3589 297.102
71 2 10.5274 13.4143 296.685
73 1 17.8358 42.0197 295.111
74 2 17.8852 40.884 295.379
75 2 17.823 43.1622 294.84
40 1 8.56524 -0.200308 306.708
41 2 7.66013 -0.36823 306.009
72 2 11.1358 11.2751 297.48
59 2 29.0113 1.27098 302.899
42 2 9.49999 49.992 307.442
58 1 28.0284 51.4122 302.241
60 2 27.0818 51.5985 301.583
78 2 37.0098 42.1633 328.678
46 1 41.7023 24.7614 335.038
48 2 42.1929 23.97 334.346
47 2 41.1636 25.5908 335.728
76 1 37.9644 41.8083 329.245
77 2 38.922 41.4154 329.839
19 1 6.50787 9.67838 347.085
20 2 7.31843 9.64929 346.216
21 2 5.71735 9.66112 347.934
11 2 13.5464 1.86993 361.163
52 1 20.2333 27.2768 351.485
53 2 20.3371 28.3907 351.172
54 2 20.122 26.1656 351.832
10 1 12.449 2.00216 360.731
12 2 11.3615 2.16672 360.314
28 1 22.4521 41.4822 412.658
30 2 21.9484 41.6949 411.616
31 1 20.5265 15.1247 421.663
32 2 20.191 14.0173 421.855
33 2 20.8443 16.244 421.456
29 2 22.988 41.2889 413.681
64 1 32.899 44.9379 439.638
65 2 31.8856 44.3644 439.936
66 2 33.8667 45.4874 439.357
16 1 5.19076 21.1336 451.229
17 2 5.43591 21.3974 450.111
18 2 4.99154 20.8684 452.366
ITEM: TIMESTEP
1000
ITEM: NUMBER OF ATOMS
78
ITEM: BOX BOUNDS pp pp pp
-2.0362049999999998e+00 4.7963794999999998e+01
-3.1688000000000001e-02 4.9968311999999997e+01
6.9957250000000002e+00 4.5699572499999999e+02
ITEM: ATOMS id type x y z
22 1 0.446894 47.2485 14.6817
23 2 -0.435062 46.7197 14.103
24 2 1.33009 47.7797 15.2212
34 1 11.8936 49.2617 36.3685
35 2 10.925 49.9007 36.5092
36 2 12.8839 48.6329 36.1733
25 1 39.6561 27.5385 81.4357
26 2 39.3425 26.8512 80.5245
27 2 39.9715 28.2243 82.3434
37 1 44.4523 21.6029 112.089
38 2 45.1927 22.4334 111.756
39 2 43.6849 20.7633 112.409
55 1 39.7367 40.2285 116.481
56 2 39.6884 40.5546 115.333
57 2 39.8006 39.9296 117.611
43 1 24.4645 18.3805 133.498
44 2 23.8174 19.0555 134.191
45 2 25.097 17.682 132.783
61 1 11.6276 28.1477 142.04
62 2 11.7086 27.8884 143.181
63 2 11.5579 28.4189 140.907
6 2 36.326 37.2045 177.525
4 1 36.9148 37.3805 178.522
13 1 9.46477 27.9948 188.35
15 2 8.97389 27.3514 187.483
1 1 27.9891 39.7202 185.663
2 2 28.1427 38.782 184.913
3 2 27.8725 40.6189 186.407
5 2 37.4909 37.5502 179.492
14 2 9.86934 28.6807 189.197
7 1 8.83107 43.707 236.418
8 2 8.72587 43.2472 235.339
9 2 8.89866 44.1413 237.495
49 1 12.1778 19.9502 244.297
50 2 11.7628 20.974 243.922
51 2 12.6062 18.9225 244.656
67 1 11.1197 19.0765 259.53
68 2 10.2494 19.8504 259.498
69 2 11.9697 18.2847 259.527
70 1 10.7912 12.4424 297.215
71 2 10.3379 13.4923 296.906
73 1 18.0012 42.1267 295.086
74 2 17.9497 41.0101 295.441
75 2 18.0142 43.2445 294.744
40 1 8.43455 -0.271497 306.753
41 2 7.55722 -0.563257 305.993
72 2 11.2415 11.406 297.553
59 2 28.9008 1.38887 302.744
42 2 9.29902 49.9969 307.485
58 1 27.9951 51.7442 302.11
60 2 27.029 52.0385 301.466
78 2 36.7937 42.2806 328.887
46 1 41.7017 24.879 335.069
48 2 42.3308 24.1898 334.304
47 2 41.1348 25.5336 335.841
76 1 37.8249 41.878 329.336
77 2 38.867 41.5368 329.721
19 1 6.48021 9.5269 347.108
20 2 7.45242 9.53261 346.473
21 2 5.48138 9.55385 347.751
11 2 13.4497 1.89309 361.318
52 1 20.2093 27.3516 351.568
53 2 20.4887 28.466 351.354
54 2 19.9341 26.2381 351.757
10 1 12.4241 2.03361 360.753
12 2 11.394 2.1766 360.187
28 1 22.2699 41.3475 412.528
30 2 21.5699 41.4987 411.601
31 1 20.5289 15.1477 421.809
32 2 20.1082 14.0522 421.933
33 2 20.9973 16.2151 421.795
29 2 22.9317 41.1776 413.486
64 1 33.085 44.7396 439.555
65 2 32.0788 44.2464 439.778
66 2 34.1075 45.3187 439.289
16 1 5.24454 20.9872 451.432
17 2 5.4003 21.4289 450.345
18 2 5.0613 20.5483 452.509
ITEM: TIMESTEP
1100
ITEM: NUMBER OF ATOMS
78
ITEM: BOX BOUNDS pp pp pp
-2.0362049999999998e+00 4.7963794999999998e+01
-3.1688000000000001e-02 4.9968311999999997e+01
6.9957250000000002e+00 4.5699572499999999e+02
ITEM: ATOMS id type x y z
22 1 0.403601 47.1997 14.7045
23 2 -0.267653 46.5449 14.013
24 2 1.11947 47.8981 15.3153
34 1 11.7556 49.3369 36.3745
35 2 10.8663 50.103 36.4826
36 2 12.6587 48.6261 36.1458
25 1 39.739 27.3162 81.556
26 2 39.4636 26.4274 80.8275
27 2 40.0554 28.2215 82.2453
37 1 44.4051 21.6182 112.1
38 2 45.1418 22.5312 112.201
39 2 43.6265 20.7712 111.951
55 1 39.8446 40.2133 116.249
56 2 39.7326 40.6708 115.167
57 2 40.0101 39.8193 117.35
43 1 24.4638 18.4133 133.41
44 2 23.8192 18.9701 134.215
45 2 25.0426 17.8211 132.58
61 1 11.5919 28.0262 141.873
62 2 11.6072 27.7827 143.016
63 2 11.6216 28.3227 140.744
6 2 36.0272 37.2355 177.678
4 1 36.7555 37.3183 178.554
13 1 9.5854 27.9925 188.252
15 2 8.97857 27.4777 187.41
1 1 28.235 39.6012 185.807
2 2 28.5299 38.5676 185.36
3 2 28.0712 40.6848 186.324
5 2 37.4682 37.4183 179.474
14 2 10.0651 28.631 189.114
7 1 8.77289 43.6315 236.358
8 2 8.61113 43.0884 235.338
9 2 8.84826 44.1291 237.412
49 1 12.0519 20.1172 244.239
50 2 11.7896 21.177 243.829
51 2 12.3623 19.0526 244.603
67 1 11.3766 19.1415 259.48
68 2 10.2619 19.4629 259.509
69 2 12.5064 18.8668 259.464
70 1 10.7401 12.5352 297.331
71 2 10.1584 13.5444 297.138
73 1 18.1633 42.2277 295.065
74 2 18.0162 41.1528 295.497
75 2 18.2108 43.3185 294.65
40 1 8.26901 -0.354806 306.77
41 2 7.47356 -0.752936 305.997
72 2 11.3378 11.5594 297.618
59 2 28.7733 1.51751 302.576
42 2 9.09979 50.0024 307.53
58 1 27.9282 52.0798 301.959
60 2 27.0157 52.4754 301.371
78 2 36.6153 42.3819 329.117
46 1 41.7361 24.9621 335.067
48 2 42.4384 24.4427 334.294
47 2 41.1114 25.4723 335.947
76 1 37.6607 41.9672 329.407
77 2 38.7879 41.6632 329.597
19 1 6.42231 9.37808 347.152
20 2 7.53553 9.41414 346.766
21 2 5.31744 9.44204 347.519
11 2 13.3352 1.91935 361.467
52 1 20.186 27.4308 351.647
53 2 20.6329 28.5002 351.547
54 2 19.7524 26.3509 351.676
10 1 12.3929 2.06653 360.773
12 2 11.448 2.183 360.069
28 1 22.0767 41.2088 412.399
30 2 21.2119 41.2951 411.615
31 1 20.5379 15.1636 421.972
32 2 20.0367 14.1206 422.005
33 2 21.1347 16.1582 422.131
29 2 22.8559 41.0713 413.26
64 1 33.3373 44.5843 439.45
65 2 32.2538 44.1124 439.626
66 2 34.3239 45.1281 439.229
16 1 5.29704 20.8422 451.627
17 2 5.35853 21.4471 450.618
18 2 5.13914 20.2354 452.624
ITEM: TIMESTEP
1200
ITEM: NUMBER OF ATOMS
78
ITEM: BOX BOUNDS pp pp pp
-2.0362049999999998e+00 4.7963794999999998e+01
-3.1688000000000001e-02 4.9968311999999997e+01
6.9957250000000002e+00 4.5699572499999999e+02
ITEM: ATOMS id type x y z
22 1 0.37156 47.1581 14.7188
23 2 -0.071397 46.397 13.9588
24 2 0.870708 47.9831 15.3802
34 1 11.6095 49.4264 36.3645
35 2 10.8199 50.2942 36.4613
36 2 12.4229 48.6226 36.1245
25 1 39.8294 27.0975 81.6756
26 2 39.6002 26.0531 81.1798
27 2 40.121 28.1601 82.1019
37 1 44.3622 21.6536 112.102
38 2 44.9711 22.4891 112.632
39 2 43.6831 20.9054 111.513
55 1 39.9597 40.2076 116.019
56 2 39.7796 40.7781 115.014
57 2 40.2151 39.7106 117.068
43 1 24.4539 18.4433 133.316
44 2 23.8378 18.8758 134.225
45 2 24.9777 17.9721 132.392
61 1 11.5617 27.9105 141.706
62 2 11.5026 27.6738 142.843
63 2 11.6835 28.2221 140.585
6 2 35.7397 37.2678 177.845
4 1 36.6081 37.2604 178.612
13 1 9.69449 28.0176 188.167
15 2 8.99249 27.5973 187.336
1 1 28.4923 39.531 185.982
2 2 28.9044 38.4117 185.832
3 2 28.2826 40.6528 186.196
5 2 37.4203 37.2803 179.423
14 2 10.2636 28.5681 189.02
7 1 8.70184 43.5481 236.302
8 2 8.50156 42.9342 235.338
9 2 8.80002 44.1158 237.323
49 1 11.9308 20.2866 244.173
50 2 11.8192 21.367 243.743
51 2 12.1086 19.1989 244.545
67 1 11.6642 19.2113 259.432
68 2 10.5288 19.0068 259.515
69 2 12.7738 19.5167 259.403
70 1 10.6892 12.6349 297.462
71 2 9.98979 13.5754 297.375
73 1 18.3129 42.3302 295.047
74 2 18.088 41.3043 295.549
75 2 18.4157 43.3858 294.557
40 1 8.10976 -0.446233 306.785
41 2 7.39178 -0.937029 306.01
72 2 11.4219 11.7317 297.671
59 2 28.6202 1.67521 302.387
42 2 8.88944 50.0057 307.568
58 1 27.8854 52.3743 301.835
60 2 27.0081 52.9232 301.275
78 2 36.4432 42.4753 329.354
46 1 41.7641 25.0624 335.103
48 2 42.5341 24.701 334.288
47 2 41.106 25.3956 336.022
76 1 37.5349 42.0646 329.471
77 2 38.6694 41.7947 329.473
19 1 6.37751 9.2412 347.185
20 2 7.54511 9.28941 347.087
21 2 5.21581 9.32373 347.267
11 2 13.2026 1.95056 361.607
52 1 20.1636 27.5063 351.719
53 2 20.762 28.4994 351.748
54 2 19.5845 26.5039 351.595
10 1 12.3571 2.09652 360.787
12 2 11.5224 2.18729 359.964
28 1 21.8641 41.0621 412.273
30 2 20.8794 41.0883 411.644
31 1 20.5716 15.1927 422.166
32 2 19.9644 14.1962 422.07
33 2 21.2553 16.0845 422.46
29 2 22.7626 40.9697 413.011
64 1 33.5283 44.4129 439.347
65 2 32.4548 43.9809 439.473
66 2 34.5671 44.9423 439.164
16 1 5.33709 20.6974 451.822
17 2 5.31787 21.4471 450.92
18 2 5.22605 19.9359 452.716
ITEM: TIMESTEP
1300
ITEM: NUMBER OF ATOMS
78
ITEM: BOX BOUNDS pp pp pp
-2.0362049999999998e+00 4.7963794999999998e+01
-3.1688000000000001e-02 4.9968311999999997e+01
6.9957250000000002e+00 4.5699572499999999e+02
ITEM: ATOMS id type x y z
22 1 0.348105 47.1305 14.7246
23 2 0.144557 46.2764 13.9421
24 2 0.595076 48.0295 15.4141